22
Properties=species:S:1:pos:R:3:forces:R:3 energy=-0.3788306429055608 pbc="F F F"
H       14.17000000      18.89000000       0.08000000       0.00767395       0.00732248       0.03912694
C       14.24000000      17.83000000      -0.16000000       0.00129831      -0.00546397      -0.00835736
H       13.34000000      17.34000000       0.23000000      -0.01084197       0.00653762       0.02719856
H       15.17000000      17.47000000       0.27000000       0.00818267       0.01249389       0.02449035
C       14.12000000      17.49000000      -1.64000000      -0.00846431       0.03518295       0.10506221
O       13.71000000      18.36000000      -2.41000000      -0.10813247       0.36498365       0.17810117
N       14.43000000      16.27000000      -2.08000000      -0.07329147       0.19920649       0.05468801
H       14.93000000      15.67000000      -1.44000000      -0.00062162      -0.00047793      -0.00255353
C       14.29000000      15.91000000      -3.47000000       0.06005097      -0.25697238      -0.10913077
H       13.33000000      16.32000000      -3.78000000      -0.05253681      -0.07823358      -0.07654541
C       15.32000000      16.52000000      -4.42000000       0.09056987       0.04821046      -0.07250058
H       16.29000000      16.02000000      -4.37000000       0.04071114       0.03286359      -0.02021248
H       14.94000000      16.47000000      -5.44000000       0.02393150       0.03515601      -0.02589700
H       15.54000000      17.57000000      -4.21000000       0.05669604       0.00183471      -0.07510361
C       14.32000000      14.39000000      -3.61000000      -0.03815157      -0.01901512       0.03675462
O       15.02000000      13.72000000      -2.86000000       0.11110986      -0.18207026       0.03923588
N       13.80000000      13.90000000      -4.73000000      -0.05003288      -0.13216576      -0.01367021
H       13.43000000      14.56000000      -5.41000000       0.00220920       0.00189605       0.00211515
C       13.58000000      12.51000000      -5.08000000      -0.05248606      -0.03778246      -0.08181671
H       13.67000000      12.40000000      -6.16000000       0.00085463       0.00229166       0.00230383
H       14.21000000      11.80000000      -4.55000000      -0.00895780      -0.03590483      -0.02352211
H       12.56000000      12.24000000      -4.80000000       0.00022883       0.00010676       0.00023305
22
Properties=species:S:1:pos:R:3:forces:R:3 energy=0.1374537920902169 pbc="F F F"
H       14.10419464      18.82155022       0.13802009       0.00598433       0.00542304       0.03510858
C       14.26060457      17.82049599      -0.19421862       0.00131892      -0.00526056      -0.00829718
H       13.32202484      17.37668003       0.21235865      -0.01132447       0.00578779       0.02912989
H       15.10418195      17.46313277       0.29562513       0.00780301       0.01280402       0.02603111
C       14.12227972      17.49859498      -1.66816073      -0.02869769       0.03493906       0.12278478
O       13.70298413      18.36069015      -2.39535800      -0.11360356       0.30333900       0.14491493
N       14.43488404      16.28589923      -2.07918577      -0.08449200       0.16506739       0.07175271
H       14.94512658      15.73941440      -1.49943008      -0.00059781      -0.00078628      -0.00276904
C       14.26144221      15.87901660      -3.45961973       0.05050661      -0.22425360      -0.09332592
H       13.32929182      16.20679812      -3.77698897      -0.05607003      -0.00633124      -0.01890086
C       15.32789463      16.53313151      -4.41274544       0.09411667       0.04617020      -0.07605583
H       16.30116317      15.98301848      -4.41101276       0.04105663       0.03336914      -0.01977262
H       14.90697593      16.46384261      -5.35146713       0.03768803       0.05483422      -0.04034110
H       15.57820316      17.52884751      -4.06332001       0.09722923       0.01325414      -0.12890154
C       14.32714590      14.38531293      -3.61294002      -0.04148747      -0.02796698       0.04245541
O       15.03005287      13.71630103      -2.83829478       0.09777490      -0.17558295       0.02848383
N       13.79811853      13.92544384      -4.74069920      -0.04885781      -0.17851714      -0.02794346
H       13.49253714      14.66033914      -5.38247170       0.00176536       0.00139581       0.00099628
C       13.57694676      12.50316280      -5.08822342      -0.04417930      -0.03064643      -0.06928850
H       13.63311325      12.38409660      -6.19126094       0.00086647       0.00222550       0.00229051
H       14.15380245      11.79944888      -4.56754046      -0.00759614      -0.03003224      -0.01902663
H       12.54421718      12.15695387      -4.75589503       0.00079613       0.00076809       0.00067465
22
Properties=species:S:1:pos:R:3:forces:R:3 energy=0.5742347478225411 pbc="F F F"
H       14.04452405      18.79112380       0.16474814       0.00525474       0.00500119       0.03527161
C       14.27234016      17.80849339      -0.22670413       0.00140530      -0.00516899      -0.00823602
H       13.34241123      17.40996109       0.19697666      -0.01231186       0.00567768       0.03369837
H       15.08722103      17.42158465       0.32906275       0.00746936       0.01207470       0.02617366
C       14.12570735      17.50920671      -1.69317410      -0.06300206       0.03217283       0.15411747
O       13.69475350      18.36297091      -2.38226984      -0.12021035       0.25861040       0.12051727
N       14.43882330      16.30664287      -2.08208108      -0.11035495       0.11414823       0.10727860
H       14.99921008      15.74504914      -1.50599303      -0.00065795      -0.00090014      -0.00286358
C       14.23905983      15.84889339      -3.45028282       0.04305058      -0.19255855      -0.07708978
H       13.27131023      16.10942226      -3.78935995      -0.06260988       0.07297291       0.03210461
C       15.33857845      16.54252989      -4.39707859       0.09896891       0.04357001      -0.08133205
H       16.28041919      15.95121158      -4.44781447       0.04769302       0.03910729      -0.02285179
H       14.86135848      16.47594596      -5.33170456       0.04037002       0.06561109      -0.04223597
H       15.60499581      17.50292478      -3.93081124       0.16742300       0.03675666      -0.21836202
C       14.33871016      14.37856372      -3.61526358      -0.04766115      -0.03557946       0.04661802
O       15.03794800      13.71218408      -2.81707998       0.08448699      -0.16353954       0.02219868
N       13.79489005      13.95010889      -4.75177535      -0.03868444      -0.23961129      -0.05221496
H       13.55093484      14.73482432      -5.34985848       0.00065153      -0.00034221      -0.00176491
C       13.56553618      12.49729674      -5.09887214      -0.03638564      -0.02388572      -0.05723929
H       13.60241449      12.36322976      -6.19909689       0.00086956       0.00215609       0.00224777
H       14.15250271      11.78453948      -4.56497126      -0.00667632      -0.02720562      -0.01682755
H       12.56986171      12.10629417      -4.73311866       0.00091158       0.00093244       0.00079185
22
Properties=species:S:1:pos:R:3:forces:R:3 energy=1.024238525270709 pbc="F F F"
H       14.00239685      18.79026945       0.14763788       0.00582804       0.00630746       0.04297016
C       14.27700609      17.79642741      -0.25354080       0.00151080      -0.00515693      -0.00815553
H       13.38232940      17.42083935       0.17792579      -0.01417041       0.00651845       0.04108108
H       15.10722763      17.35238123       0.35052667       0.00786924       0.01156232       0.02739392
C       14.13115735      17.52041084      -1.71119315      -0.10576105       0.03184875       0.19846248
O       13.68420391      18.36856327      -2.37289814      -0.12489170       0.22558196       0.09433483
N       14.44318034      16.32686728      -2.08865601      -0.15071400       0.05386514       0.15562701
H       15.06545418      15.72277108      -1.48154130      -0.00076510      -0.00087345      -0.00283912
C       14.22449696      15.82373688      -3.44367978       0.03748638      -0.16480356      -0.06260389
H       13.17820055      16.03516282      -3.80555291      -0.07264528       0.14526462       0.06937293
C       15.34749346      16.54584373      -4.37202288       0.10574555       0.04122253      -0.08870824
H       16.23522429      15.92705915      -4.47843425       0.06059564       0.05056477      -0.02958299
H       14.81578548      16.52567417      -5.36375309       0.02948695       0.05619768      -0.02978603
H       15.62222985      17.48486009      -3.83594802       0.25596508       0.07239738      -0.32796475
C       14.35518372      14.36803179      -3.61532013      -0.05679987      -0.03924380       0.04855046
O       15.04297898      13.70800093      -2.79758194       0.07334651      -0.15253535       0.01901618
N       13.79167916      13.97137346      -4.76116277      -0.01725189      -0.29356262      -0.08137125
H       13.59158685      14.77569051      -5.33439047      -0.00033497      -0.00221980      -0.00484162
C       13.54778719      12.49336738      -5.11095654      -0.02980506      -0.01818707      -0.04691184
H       13.57814373      12.33866993      -6.18571228       0.00086913       0.00211100       0.00220195
H       14.19981580      11.77089621      -4.55528947      -0.00626157      -0.02756483      -0.01694522
H       12.62239708      12.09579318      -4.73192182       0.00069757       0.00070536       0.00069950
22
Properties=species:S:1:pos:R:3:forces:R:3 energy=1.2532752590613256 pbc="F F F"
H       13.99139639      18.79554803       0.08079052       0.00906492       0.01052137       0.06629428
C       14.28079006      17.78604494      -0.27087741       0.00149198      -0.00496806      -0.00798928
H       13.40587145      17.39041938       0.16180606      -0.01647925       0.00799257       0.04737088
H       15.11796411      17.28634890       0.32357970       0.01061020       0.01444561       0.03693320
C       14.13861746      17.53133049      -1.72039001      -0.13466536       0.03664181       0.23211713
O       13.67061549      18.37854349      -2.36847952      -0.12176609       0.19641656       0.05389716
N       14.45235238      16.33922881      -2.09536946      -0.18899788       0.00615990       0.18932187
H       15.07834369      15.74123316      -1.48677494      -0.00072017      -0.00107715      -0.00294690
C       14.21376032      15.80714091      -3.44199842       0.03287602      -0.14373853      -0.05299273
H       13.12296761      15.98032460      -3.80025679      -0.08642886       0.19814267       0.09715590
C       15.34722553      16.54378109      -4.34299153       0.11392966       0.03977721      -0.09767985
H       16.19414395      15.90018224      -4.50130592       0.07709148       0.06547657      -0.03860042
H       14.80737034      16.61873069      -5.37152449       0.01742173       0.03646906      -0.01641751
H       15.63532839      17.46324544      -3.79363425       0.31496739       0.10517097      -0.40377846
C       14.37590972      14.35375669      -3.61284516      -0.06919897      -0.04228866       0.05352289
O       15.04504631      13.70352490      -2.78036240       0.06645587      -0.14806963       0.01826478
N       13.78955355      13.98592383      -4.76743728       0.00500424      -0.33086944      -0.11204674
H       13.60568409      14.78780983      -5.35175715      -0.00018760      -0.00205339      -0.00519723
C       13.53224514      12.49223835      -5.12098949      -0.02530509      -0.01437396      -0.03989586
H       13.55955231      12.31098042      -6.17693576       0.00086285       0.00207964       0.00216843
H       14.25711855      11.79571304      -4.57084251      -0.00649736      -0.03232955      -0.02008815
H       12.64538327      12.10767728      -4.73232160       0.00047030       0.00047444       0.00058660
22
Properties=species:S:1:pos:R:3:forces:R:3 energy=0.6989581590507614 pbc="F F F"
H       14.01847845      18.80009923      -0.02042471       0.01848553       0.01977056       0.11700009
C       14.28585354      17.77664114      -0.27883118       0.00129006      -0.00443514      -0.00767797
H       13.40298375      17.31852505       0.15190965      -0.01886966       0.00956925       0.05017444
H       15.10103914      17.24755488       0.24115001       0.01802699       0.02469800       0.06453369
C       14.14763405      17.54135183      -1.72107294      -0.13394800       0.04417675       0.23552261
O       13.65385702      18.39297923      -2.36922741      -0.11564396       0.16567985      -0.01219992
N       14.46593793      16.34278969      -2.10254692      -0.20485961      -0.01287119       0.17134619
H       15.03726591      15.80095704      -1.52206085      -0.00046911      -0.00174088      -0.00337382
C       14.20483194      15.79989560      -3.44492093       0.02897426      -0.12885912      -0.04802456
H       13.14356320      15.94871751      -3.76423084      -0.09228818       0.22534221       0.11524290
C       15.33410441      16.53758045      -4.31507790       0.12244343       0.03959941      -0.10727604
H       16.17180080      15.86607282      -4.51590646       0.09454253       0.08095327      -0.04837300
H       14.85297474      16.74141785      -5.31022280       0.00971958       0.02001723      -0.00821739
H       15.65395613      17.44086546      -3.79797336       0.30803185       0.11659548      -0.40129773
C       14.39893128      14.33773754      -3.60912277      -0.08334191      -0.04353797       0.06384699
O       15.04460555      13.69802846      -2.76530466       0.06358655      -0.15018194       0.01986202
N       13.78905016      13.99118010      -4.77075403       0.01261558      -0.35217851      -0.13786756
H       13.59401405      14.77287844      -5.39707202       0.00057477      -0.00048515      -0.00271135
C       13.52462394      12.49581025      -5.12700499      -0.02293849      -0.01241927      -0.03637300
H       13.54510326      12.28330575      -6.19020190       0.00084939       0.00205025       0.00214542
H       14.29546448      11.87001082      -4.62530140      -0.00731718      -0.04236291      -0.02692906
H       12.60714782      12.12457195      -4.71771229       0.00053557       0.00061980       0.00064704
22
Properties=species:S:1:pos:R:3:forces:R:3 energy=0.6987867799245276 pbc="F F F"
H       14.08282452      18.81505302      -0.12424474       0.03834969       0.03419060       0.19124974
C       14.28746907      17.76604819      -0.28134625       0.00105901      -0.00382423      -0.00732881
H       13.39979030      17.23089839       0.14033179      -0.02164024       0.01125641       0.05311158
H       15.09048703      17.23336320       0.13817694       0.03124251       0.04395761       0.11251402
C       14.15728282      17.55010365      -1.71570830      -0.11657655       0.05211699       0.22256389
O       13.63450988      18.41084995      -2.37439037      -0.11972072       0.13476738      -0.09880832
N       14.47849268      16.34322646      -2.11452441      -0.20355539      -0.01775393       0.10024506
H       15.00966333      15.83356011      -1.52525085      -0.00024781      -0.00260168      -0.00400616
C       14.20166788      15.79999134      -3.44887816       0.02619403      -0.11765374      -0.04484479
H       13.19738630      15.95257753      -3.71710772      -0.07950431       0.19825419       0.10318532
C       15.31191797      16.52736134      -4.28894702       0.12999205       0.03996087      -0.11666927
H       16.15458194      15.83644899      -4.52030699       0.11431540       0.09843934      -0.05972651
H       14.92429284      16.87583822      -5.21348930       0.00548952       0.00998323      -0.00454246
H       15.68536942      17.42794361      -3.82401917       0.26225387       0.10993552      -0.34572592
C       14.42131907      14.32328635      -3.60647899      -0.09993098      -0.04403743       0.07975571
O       15.04241013      13.69058522      -2.75188272       0.06241131      -0.15402612       0.02359142
N       13.79031825      13.98589826      -4.77256602      -0.00269827      -0.32909170      -0.13548432
H       13.56541984      14.72821079      -5.44670346       0.00118828       0.00075019      -0.00001515
C       13.52175913      12.50604372      -5.13019909      -0.02201449      -0.01157183      -0.03519023
H       13.53277897      12.26500053      -6.21343870       0.00083442       0.00202705       0.00212421
H       14.32513454      11.96159818      -4.69754605      -0.00816772      -0.05596460      -0.03675969
H       12.54114312      12.14912257      -4.69554393       0.00072641       0.00088586       0.00076066
22
Properties=species:S:1:pos:R:3:forces:R:3 energy=0.8137503634887051 pbc="F F F"
H       14.18059791      18.84415386      -0.20310549       0.06297142       0.04586269       0.24124105
C       14.28018035      17.75275747      -0.28193643       0.00102262      -0.00368257      -0.00728489
H       13.42316118      17.16276218       0.12060731      -0.02527838       0.01359196       0.06026217
H       15.13374064      17.23042142       0.05162799       0.04654625       0.06232602       0.15481623
C       14.16558577      17.55795905      -1.70879675      -0.10193246       0.06013024       0.21467703
O       13.61383091      18.43029572      -2.38241344      -0.13281647       0.11272488      -0.15778566
N       14.48762327      16.34474265      -2.13195095      -0.20598840      -0.02714256       0.03144110
H       15.02567850      15.80187048      -1.47217345      -0.00027656      -0.00314706      -0.00445177
C       14.20924372      15.80432411      -3.44993080       0.02460973      -0.10833173      -0.04172364
H       13.21395118      16.00029496      -3.68702130      -0.05711840       0.11941905       0.05702838
C       15.28842236      16.51376157      -4.26357881       0.13510725       0.03854439      -0.12557614
H       16.12156518      15.82471009      -4.51344050       0.14163786       0.12412131      -0.07596026
H       14.97671822      17.01388866      -5.14308228       0.00291601       0.00426531      -0.00281849
H       15.72751523      17.42169194      -3.84206297       0.22659212       0.10364795      -0.29684737
C       14.43996984      14.31362665      -3.60720109      -0.12381533      -0.05479677       0.10030889
O       15.03915107      13.68047082      -2.73959151       0.06061475      -0.15456258       0.02864282
N       13.79336128      13.96983542      -4.77414409      -0.02811968      -0.25869899      -0.09942442
H       13.53086322      14.66149461      -5.47655228       0.00149373       0.00127640       0.00147517
C       13.51621908      12.52322881      -5.13279743      -0.02170271      -0.01100225      -0.03489435
H       13.52017234      12.26868005      -6.22032745       0.00083304       0.00203777       0.00212088
H       14.37419923      12.02770735      -4.75688191      -0.00791009      -0.06737736      -0.04594377
H       12.51290453      12.19148563      -4.68589071       0.00061368       0.00079391       0.00069702
22
Properties=species:S:1:pos:R:3:forces:R:3 energy=1.1142226861128117 pbc="F F F"
H       14.29810273      18.86326438      -0.24440489       0.07442770       0.04370289       0.22591930
C       14.26716041      17.73769272      -0.28142913       0.00114635      -0.00384681      -0.00735225
H       13.46306686      17.12929293       0.10290033      -0.02822413       0.01593252       0.06789921
H       15.22670173      17.24243923      -0.01440451       0.05827417       0.07052710       0.16819166
C       14.16959194      17.56595625      -1.70571075      -0.09833731       0.06830734       0.21996254
O       13.59345110      18.44914306      -2.39130506      -0.13639120       0.11052475      -0.14725529
N       14.49737894      16.34567034      -2.14781845      -0.23062400      -0.04875206       0.02282996
H       15.03449330      15.75016647      -1.43025769      -0.00041253      -0.00305229      -0.00438917
C       14.22573651      15.81092576      -3.44681729       0.02390594      -0.10075284      -0.03873627
H       13.18364327      16.08279432      -3.68386957      -0.04042435       0.04230028       0.01024053
C       15.26962952      16.50136165      -4.24149909       0.13620838       0.03199624      -0.13414191
H       16.07315537      15.82591708      -4.50080081       0.18021196       0.16240132      -0.09950586
H       14.98769193      17.13959366      -5.10810951       0.00176458       0.00159157      -0.00211166
H       15.76855965      17.40140390      -3.83041522       0.23118849       0.11368153      -0.29613093
C       14.45257641      14.31027887      -3.61236403      -0.15868879      -0.08614020       0.12347881
O       15.03511401      13.66753852      -2.72840807       0.05794986      -0.15193177       0.03299692
N       13.79831641      13.94373452      -4.77532275      -0.04636158      -0.18864131      -0.06151078
H       13.49682142      14.59685009      -5.47942982       0.00160422       0.00138493       0.00204061
C       13.50691785      12.54542195      -5.13534486      -0.02171647      -0.01048806      -0.03502790
H       13.50378603      12.30127580      -6.20376530       0.00085018       0.00208127       0.00213878
H       14.43728607      12.05444241      -4.79441439      -0.00624822      -0.07089375      -0.04983799
H       12.54634021      12.24639284      -4.69197609      -0.00010326       0.00006736       0.00030170
22
Properties=species:S:1:pos:R:3:forces:R:3 energy=1.4499922790401258 pbc="F F F"
H       14.40467115      18.84036060      -0.24205297       0.06566921       0.02981565       0.17000999
C       14.26056286      17.72354884      -0.28060123       0.00123776      -0.00382364      -0.00721250
H       13.48250444      17.11950777       0.11020059      -0.02652930       0.01531066       0.06392100
H       15.30369525      17.28475111      -0.07064918       0.06570086       0.07668067       0.17038976
C       14.16657217      17.57469625      -1.71057257      -0.10789965       0.07927735       0.24192105
O       13.57490475      18.46548227      -2.39923504      -0.12266281       0.12629926      -0.09054833
N       14.51150117      16.34372900      -2.15492891      -0.30730048      -0.10422920       0.10023210
H       14.98951436      15.73207035      -1.46593586      -0.00029848      -0.00238476      -0.00389163
C       14.24246138      15.82010170      -3.44094791       0.02388448      -0.09610884      -0.03673218
H       13.16969960      16.16912990      -3.69633353      -0.03507382      -0.00703382      -0.01994260
C       15.25769907      16.49783246      -4.22794793       0.13302644       0.01819709      -0.14274641
H       16.03177187      15.82012577      -4.49556214       0.22535375       0.20719789      -0.12707351
H       14.95999218      17.21429163      -5.06678607       0.00305521       0.00171787      -0.00411631
H       15.79821578      17.34876319      -3.78011015       0.30451436       0.15714210      -0.37691238
C       14.45824811      14.31216399      -3.62114462      -0.19991762      -0.13102303       0.14768879
O       15.03002399      13.65243722      -2.71909066       0.05562462      -0.14773306       0.03504631
N       13.80552516      13.91031772      -4.77495219      -0.05221268      -0.14400797      -0.03965290
H       13.46453755      14.55874861      -5.46136590       0.00165261       0.00134783       0.00218180
C       13.50178725      12.56927052      -5.13690233      -0.02244991      -0.01044488      -0.03642021
H       13.47922748      12.35966700      -6.18672457       0.00087129       0.00210425       0.00214676
H       14.46731058      12.05751688      -4.82134961      -0.00492730      -0.06709121      -0.04789651
H       12.59829643      12.29106122      -4.69080041      -0.00131854      -0.00121020      -0.00039208
22
Properties=species:S:1:pos:R:3:forces:R:3 energy=1.2246540543491267 pbc="F F F"
H       14.47067702      18.77842540      -0.19295082       0.04592978       0.01555329       0.11098713
C       14.26922288      17.71175868      -0.28133363       0.00133234      -0.00378015      -0.00699827
H       13.46591899      17.12338345       0.15711547      -0.01932958       0.01082227       0.04559990
H       15.31232377      17.35168761      -0.11564591       0.07098857       0.08924887       0.18147038
C       14.15543509      17.58340644      -1.72444082      -0.13159114       0.09783234       0.28343231
O       13.55915868      18.47812071      -2.40514853      -0.10140145       0.14700638      -0.02649175
N       14.52742112      16.34225948      -2.15457139      -0.49595132      -0.23387258       0.30224248
H       14.92026318      15.72617629      -1.53942295      -0.00005389      -0.00155030      -0.00332618
C       14.25236776      15.83283081      -3.43449213       0.02459509      -0.09544219      -0.03634182
H       13.22547179      16.22595114      -3.70988768      -0.04221799      -0.04059127      -0.03847793
C       15.25267602      16.50667246      -4.22498521       0.12799504      -0.00016705      -0.15135195
H       16.01361600      15.79774228      -4.51171928       0.25985880       0.23875127      -0.14815795
H       14.90444806      17.21588710      -4.99733497       0.01075800       0.00655620      -0.01353156
H       15.82121136      17.26820993      -3.69457292       0.50567805       0.26390404      -0.59388889
C       14.45747941      14.31603637      -3.63094705      -0.23207969      -0.16662865       0.16688926
O       15.02315721      13.63654591      -2.71308712       0.05423368      -0.13938704       0.03617888
N       13.81524375      13.87515720      -4.77221123      -0.04970527      -0.11833360      -0.02902687
H       13.43584018      14.55116698      -5.42520638       0.00169276       0.00130950       0.00212394
C       13.50776194      12.59086717      -5.13718594      -0.02434374      -0.01126974      -0.03997919
H       13.44301509      12.43670313      -6.19621699       0.00088991       0.00208106       0.00214366
H       14.43268104      12.05192030      -4.84659710      -0.00504397      -0.05982704      -0.04263732
H       12.61592146      12.30558946      -4.65758020      -0.00223399      -0.00221563      -0.00085824
22
Properties=species:S:1:pos:R:3:forces:R:3 energy=1.227777785820576 pbc="F F F"
H       14.48827975      18.72131718      -0.10044052       0.02619383       0.00680861       0.06367851
C       14.28879818      17.70123791      -0.28475054       0.00146586      -0.00393077      -0.00682822
H       13.44555939      17.15032214       0.23204132      -0.01168095       0.00634726       0.02724560
H       15.27997354      17.40660311      -0.13493887       0.07178298       0.09991721       0.19216508
C       14.13723706      17.59030075      -1.74487046      -0.16303255       0.12250515       0.32936487
O       13.54639428      18.48677429      -2.40899196      -0.08259977       0.16021489       0.02423143
N       14.53973132      16.34701010      -2.15279652      -0.85791245      -0.44897215       0.66311246
H       14.88093439      15.67193543      -1.55996564       0.00002806      -0.00048832      -0.00265700
C       14.25684941      15.84794643      -3.42888906       0.02599981      -0.09801991      -0.03733428
H       13.32183415      16.24741675      -3.72508420      -0.07133082      -0.07540740      -0.03580783
C       15.25539603      16.52323696      -4.22878151       0.12425041      -0.01683780      -0.15865424
H       16.00752542      15.77528655      -4.55574876       0.26113905       0.23790605      -0.15204936
H       14.82635777      17.17555071      -4.93164282       0.03948807       0.02557565      -0.04323069
H       15.85457455      17.18094840      -3.59395256       0.89409794       0.44877370      -0.97080224
C       14.45167459      14.31805722      -3.63822845      -0.23339123      -0.17458540       0.16964797
O       15.01366113      13.62158999      -2.71203338       0.05332023      -0.12431122       0.03846828
N       13.82748047      13.84563973      -4.76676892      -0.04530542      -0.10407072      -0.02357181
H       13.41569037      14.55675663      -5.36871759       0.00169481       0.00125783       0.00188614
C       13.52113261      12.60625432      -5.13754864      -0.02719801      -0.01284593      -0.04538823
H       13.39537394      12.52749402      -6.22919033       0.00091661       0.00203769       0.00215442
H       14.36248057      12.02855412      -4.86627365      -0.00541281      -0.04930821      -0.03474219
H       12.60265724      12.29314141      -4.59840099      -0.00251367      -0.00256622      -0.00088869
22
Properties=species:S:1:pos:R:3:forces:R:3 energy=1.4493962322370118 pbc="F F F"
H       14.46622054      18.70532582       0.02154678       0.01287145       0.00257938       0.03263300
C       14.30781553      17.69144248      -0.28973637       0.00154704      -0.00399819      -0.00651830
H       13.46828173      17.20896423       0.30355515      -0.00728284       0.00417558       0.01763802
H       15.27987172      17.41150281      -0.11648655       0.06696786       0.09380471       0.18245129
C       14.11450054      17.59383571      -1.76701005      -0.17136191       0.13379013       0.33328386
O       13.53610888      18.49196258      -2.41151598      -0.06848480       0.16165035       0.05412889
N       14.54635314      16.35699823      -2.15039852      -1.17793014      -0.57051801       0.93603007
H       14.86956271      15.58503800      -1.51655330      -0.00000272       0.00040503      -0.00206382
C       14.26295609      15.86186904      -3.42476929       0.02770512      -0.10122538      -0.03861826
H       13.37646849      16.25496769      -3.75622743      -0.13476250      -0.12176178       0.01409120
C       15.26792166      16.54037316      -4.23315987       0.12272202      -0.02731762      -0.16252987