40
Lattice="8.638777577842513 0.11909422967301433 0.05520186649190713 -0.16315859806217106 15.06855665344889 0.2592793943293393 0.2302875106084373 -0.08695574610120277 16.046323288007823" Properties=species:S:1:pos:R:3:forces:R:3:energies:R:1 energy=-12702.67610397201 free_energy=-12702.67610397201 pbc="T T T"
Cs      -0.25921569       6.73593644      -8.23367430       0.00015754       0.00014949       0.00019410    -316.77092988
Cs       4.10160194       9.32970746      -4.27413232      -0.00005467       0.00012151       0.00037334    -316.77048371
Cs      -4.61140505      14.23755390      -8.23093533       0.00006770      -0.00009850       0.00048906    -316.76797952
Cs      -0.35341848      16.76152143      -4.07318514      -0.00024005      -0.00011149      -0.00016232    -316.76853030
Cs      -0.14279296       6.69555915      -0.21229962      -0.00003292      -0.00009625       0.00008439    -316.77113859
Cs       4.21639496       9.28320004       3.75390142       0.00021171       0.00015443      -0.00036674    -316.77049935
Cs      -4.49534832      14.19328149      -0.20636766       0.00004229       0.00008636      -0.00004841    -316.76788127
Cs      -0.23829526      16.71890318       3.94982708      -0.00014397       0.00009888      -0.00012268    -316.76842252
Pb       3.96518972      19.36451983      -5.45607849       0.00020724      -0.00056295      -0.00010577    -317.96825777
Pb       4.02692794      19.33840244      -1.44846020      -0.00044728      -0.00046034      -0.00008416    -317.96734823
Pb      -0.28906625      11.76245954      -6.78119680       0.00023831       0.00023732       0.00056286    -317.96696635
Pb      -0.34952653      11.78834058     -10.78891987      -0.00004571       0.00005707      -0.00020769    -317.96606192
Pb       4.08056581      19.32170835       2.56674308      -0.00002315      -0.00059985       0.00023280    -317.96824786
Pb       4.14091591      19.29380450       6.57461687      -0.00006153      -0.00018030      -0.00016428    -317.96730498
Pb      -0.17270577      11.71880921       1.24199833      -0.00022694      -0.00014226      -0.00015318    -317.96693546
Pb      -0.23344420      11.74558414      -2.76571040       0.00051074       0.00025479      -0.00053401    -317.96617084
I       -2.13727570       5.23615870      -3.70741406       0.00020419       0.00009013       0.00002362    -317.69483026
I       -2.65609863      10.69197692      -8.84671141       0.00039343       0.00007458      -0.00003940    -317.69628159
I        2.09987887       5.81451453      -3.58387117      -0.00026844       0.00024210      -0.00033726    -317.69372102
I        1.74830219      10.25476622      -8.91158755       0.00003313      -0.00031219      -0.00010017    -317.69564250
I       -0.47858252       9.18552869      -4.89267119       0.00001935       0.00002004      -0.00007698    -317.70618440
I        4.32684377       6.87190793      -7.60490740       0.00030712      -0.00023748       0.00012255    -317.70575546
I        2.06182169      12.85582877      -4.88528192      -0.00042559      -0.00017057      -0.00065700    -317.69291909
I        1.60874801      18.28278283      -7.35403815      -0.00024759       0.00002886       0.00002619    -317.69127137
I       -2.35033761      13.25496791      -4.82127089      -0.00043861       0.00031807      -0.00018069    -317.70113843
I       -2.62056600      17.74079530      -7.47027704       0.00011168       0.00050518       0.00007759    -317.69942983
I        3.74567569      16.78155350      -3.36505786       0.00031210       0.00035822      -0.00012099    -317.70678444
I       -0.07866902      14.34590907      -8.87252441      -0.00021679       0.00002916      -0.00014362    -317.70789348
I       -2.02329491       5.19368770       4.31729857       0.00013920      -0.00012074       0.00000272    -317.69489654
I       -2.53851402      10.64752861      -0.82428770      -0.00049118      -0.00002008       0.00047409    -317.69621151
I        2.21354211       5.76988763       4.43917949       0.00006202      -0.00048509       0.00010276    -317.69375918
I        1.86587020      10.21305507      -0.88927498      -0.00000129      -0.00011874       0.00021493    -317.69536478
I       -0.36429861       9.14166177       3.12994352       0.00004390       0.00015757       0.00020384    -317.70601325
I        4.44355529       6.82913776       0.41883337       0.00011770       0.00019862       0.00021228    -317.70547621
I        2.17753428      12.81022569       3.13957157       0.00027916       0.00012052      -0.00024713    -317.69308612
I        1.72395686      18.24152401       0.66848903       0.00022255      -0.00007195       0.00010410    -317.69115404
I       -2.23428835      13.21217854       3.20086753      -0.00021426       0.00002981       0.00013658    -317.70113559
I       -2.50480257      17.69820875       0.55307831      -0.00004420      -0.00009800       0.00027139    -317.69935253
I        3.86165260      16.73748021       4.65694822      -0.00012024       0.00068493      -0.00010767    -317.70685013
I        0.03666050      14.30298052      -0.84874691       0.00006335      -0.00013083       0.00005097    -317.70779366
