40
Lattice="9.795794926629368 0.0765912375396645 0.05698532479258061 -0.09034109889106097 10.835535655086115 0.40438378268483544 -0.05476800647483707 -0.6796814814567977 18.345494763670548" Properties=species:S:1:pos:R:3:forces:R:3:energies:R:1 energy=-12703.725397220986 free_energy=-12703.725397220986 pbc="T T T"
Cs       2.50651172       2.14998079      12.32622660       0.00018361       0.00006159       0.00008147    -316.79079636
Cs      -0.03542036      11.13578440      18.99032252      -0.00007924      -0.00014656      -0.00017990    -316.79082635
Cs       2.47177431       7.67350798       9.68914313       0.00003185      -0.00001648      -0.00003901    -316.79073741
Cs      -0.00138525       5.61190255      21.62767775      -0.00002555       0.00006016      -0.00014158    -316.79071694
Cs       7.40433138       2.18860154      12.35479895       0.00014409      -0.00008498       0.00005021    -316.79079967
Cs       4.86250095      11.17317283      19.01845372      -0.00006412       0.00007106      -0.00001028    -316.79079540
Cs       7.36971863       7.71148877       9.71760071      -0.00009547       0.00010347      -0.00006253    -316.79076098
Cs       4.89649851       5.65136098      21.65548292      -0.00009341      -0.00025051       0.00016084    -316.79074600
Pb       0.06633120       3.25152812       7.45420964       0.00003820      -0.00046333      -0.00046766    -318.00629003
Pb       2.40763405      10.03476712      23.86227271      -0.00027703      -0.00002169       0.00017785    -318.00629965
Pb      -0.00111502       8.41129209      14.60243558      -0.00009936      -0.00006052       0.00019794    -318.00640337
Pb       2.46832379       4.87371205      16.71378279       0.00030209       0.00001565      -0.00013334    -318.00641247
Pb       4.96410640       3.28939269       7.48250418       0.00007553       0.00015652       0.00008352    -318.00635146
Pb       7.30553080      10.07321800      23.89071049       0.00023120       0.00002666       0.00013185    -318.00633360
Pb       4.89693517       8.44962421      14.63093838      -0.00005414       0.00005408      -0.00006987    -318.00641665
Pb       7.36632027       4.91176799      16.74244937      -0.00006241       0.00012468      -0.00008381    -318.00642579
I        2.50401148       5.20592998       6.42909371       0.00002035      -0.00026860       0.00007146    -317.72716107
I        0.02267078       8.76017925       6.54213769       0.00008782       0.00012972      -0.00019085    -317.72712396
I        2.42840943      10.28266081      15.79747017       0.00000490       0.00018728       0.00005077    -317.72717164
I        0.04093363       3.00199077      15.51896256       0.00002594       0.00000798      -0.00004698    -317.72721858
I        0.03680941       1.26545694      22.64204616       0.00001949      -0.00019727       0.00009107    -317.80367546
I        2.43529538      12.02068917       8.67444138       0.00003353       0.00014700      -0.00021841    -317.80371208
I       -0.00153793       6.87394475      17.65440928       0.00020130       0.00013906      -0.00007736    -317.80362930
I        2.47066745       6.41100126      13.66178157      -0.00008425      -0.00007981       0.00013887    -317.80362734
I        0.04505689       4.54793610      10.29493519       0.00019295       0.00019526       0.00026663    -317.63779434
I        2.42574724       8.73770924      21.02156836       0.00020043       0.00011185       0.00005803    -317.63774369
I       -0.00365441       9.91538666      11.86595164      -0.00003858       0.00005631      -0.00012457    -317.63769360
I        2.47397416       3.36995067      19.45036111      -0.00018933       0.00005383       0.00025942    -317.63770558
I        7.40165068       5.24386160       6.45735280       0.00010983      -0.00005342       0.00009751    -317.72715993
I        4.92099502       8.79848449       6.57034660      -0.00014001       0.00005596      -0.00001494    -317.72720528
I        7.32637475      10.32127632      15.82588148       0.00002001      -0.00008206       0.00002313    -317.72716085
I        4.93872504       3.04032754      15.54729630      -0.00021869       0.00004940       0.00010279    -317.72710725
I        4.93423862       1.30359385      22.67045638       0.00009601      -0.00013079      -0.00013825    -317.80370644
I        7.33340674      12.05907996       8.70264602       0.00002701       0.00009834       0.00017107    -317.80369961
I        4.89673607       6.91238059      17.68280973      -0.00014886       0.00005455      -0.00011790    -317.80366822
I        7.36849496       6.44895750      13.69052188      -0.00001653       0.00022725      -0.00000877    -317.80364541
I        4.94312860       4.58626635      10.32323100      -0.00009338      -0.00011482       0.00002819    -317.63765980
I        7.32454839       8.77609891      21.05006149      -0.00014316       0.00002479      -0.00008424    -317.63769775
I        4.89452390       9.95373447      11.89436009      -0.00006658      -0.00003508       0.00001176    -317.63765787
I        7.37130463       3.40835218      19.47931837      -0.00005604      -0.00020652      -0.00004411    -317.63766006
